% Model:              lens_cube.mph
% Version:            COMSOL 5.5.0.292
% Date:               Nov 26 2021, 17:41
% Dimension:          3
% Nodes:              2001
% Expressions:        1
% Description:        Electric field, z component
% Length unit:        m
% x                       y                        z                        es.Ez (V/m)
3.0E-5                    -2.5E-5                  -0.001                   338.2237326581324
3.0E-5                    -2.5E-5                  -9.99E-4                 338.0543680102414
3.0E-5                    -2.5E-5                  -9.98E-4                 337.8850033623471
3.0E-5                    -2.5E-5                  -9.97E-4                 337.7156387144537
3.0E-5                    -2.5E-5                  -9.96E-4                 337.5462740665618
3.0E-5                    -2.5E-5                  -9.95E-4                 337.3769094186689
3.0E-5                    -2.5E-5                  -9.94E-4                 337.20754477077776
3.0E-5                    -2.5E-5                  -9.93E-4                 337.03818012288446
3.0E-5                    -2.5E-5                  -9.92E-4                 336.86881547499075
3.0E-5                    -2.5E-5                  -9.910000000000001E-4    336.6994508270985
3.0E-5                    -2.5E-5                  -9.9E-4                  336.5300861792034
3.0E-5                    -2.5E-5                  -9.89E-4                 336.3607215313126
3.0E-5                    -2.5E-5                  -9.88E-4                 336.18125194166856
3.0E-5                    -2.5E-5                  -9.87E-4                 336.01305864012073
3.0E-5                    -2.5E-5                  -9.860000000000001E-4    335.8448653385692
3.0E-5                    -2.5E-5                  -9.85E-4                 335.6766720370198
3.0E-5                    -2.5E-5                  -9.84E-4                 335.50847873547013
3.0E-5                    -2.5E-5                  -9.83E-4                 335.34028543391577
3.0E-5                    -2.5E-5                  -9.82E-4                 335.1720921323689
3.0E-5                    -2.5E-5                  -9.81E-4                 335.00389883081846
3.0E-5                    -2.5E-5                  -9.8E-4                  334.8357055292664
3.0E-5                    -2.5E-5                  -9.79E-4                 334.66751222771825
3.0E-5                    -2.5E-5                  -9.78E-4                 334.4993189261688
3.0E-5                    -2.5E-5                  -9.77E-4                 334.3311256246176
3.0E-5                    -2.5E-5                  -9.76E-4                 334.162932323068
3.0E-5                    -2.5E-5                  -9.750000000000001E-4    333.99473902152056
3.0E-5                    -2.5E-5                  -9.74E-4                 333.8265457199686
3.0E-5                    -2.5E-5                  -9.73E-4                 333.658352418419
3.0E-5                    -2.5E-5                  -9.72E-4                 333.49015911686877
3.0E-5                    -2.5E-5                  -9.710000000000001E-4    333.3219658153207
3.0E-5                    -2.5E-5                  -9.7E-4                  333.1537725137714
3.0E-5                    -2.5E-5                  -9.69E-4                 332.9855792122187
3.0E-5                    -2.5E-5                  -9.68E-4                 332.81738591066755
3.0E-5                    -2.5E-5                  -9.67E-4                 332.6491926091178
3.0E-5                    -2.5E-5                  -9.660000000000001E-4    332.48099930756547
3.0E-5                    -2.5E-5                  -9.65E-4                 332.31280600601906
3.0E-5                    -2.5E-5                  -9.64E-4                 332.43732822894157
3.0E-5                    -2.5E-5                  -9.63E-4                 332.2505024745458
3.0E-5                    -2.5E-5                  -9.620000000000001E-4    332.0636767201522
3.0E-5                    -2.5E-5                  -9.61E-4                 331.8768509657546
3.0E-5                    -2.5E-5                  -9.6E-4                  331.6900252113602
3.0E-5                    -2.5E-5                  -9.59E-4                 331.5031994569657
3.0E-5                    -2.5E-5                  -9.58E-4                 331.3163737025696
3.0E-5                    -2.5E-5                  -9.570000000000001E-4    331.12954794817233
3.0E-5                    -2.5E-5                  -9.56E-4                 330.94272219378007
3.0E-5                    -2.5E-5                  -9.55E-4                 330.75589643938486
3.0E-5                    -2.5E-5                  -9.54E-4                 330.56907068498975
3.0E-5                    -2.5E-5                  -9.530000000000001E-4    330.3822449305932
3.0E-5                    -2.5E-5                  -9.52E-4                 330.1954191761989
3.0E-5                    -2.5E-5                  -9.51E-4                 330.00859342180206
3.0E-5                    -2.5E-5                  -9.5E-4                  329.82176766740935
3.0E-5                    -2.5E-5                  -9.49E-4                 329.634941913013
3.0E-5                    -2.5E-5                  -9.480000000000001E-4    329.44811615861744
3.0E-5                    -2.5E-5                  -9.47E-4                 329.26129040422234
3.0E-5                    -2.5E-5                  -9.46E-4                 329.0744646498267
3.0E-5                    -2.5E-5                  -9.45E-4                 328.8876388954308
3.0E-5                    -2.5E-5                  -9.440000000000001E-4    328.7008131410379
3.0E-5                    -2.5E-5                  -9.43E-4                 328.513987386642
3.0E-5                    -2.5E-5                  -9.42E-4                 328.32716163224393
3.0E-5                    -2.5E-5                  -9.41E-4                 328.1403358778503
3.0E-5                    -2.5E-5                  -9.400000000000001E-4    327.9535101234553
3.0E-5                    -2.5E-5                  -9.390000000000001E-4    327.7666843690592
3.0E-5                    -2.5E-5                  -9.38E-4                 327.579858614664
3.0E-5                    -2.5E-5                  -9.37E-4                 327.3930328602698
3.0E-5                    -2.5E-5                  -9.36E-4                 327.2062071058739
3.0E-5                    -2.5E-5                  -9.350000000000001E-4    327.01938135147844
3.0E-5                    -2.5E-5                  -9.34E-4                 326.8325555970837
3.0E-5                    -2.5E-5                  -9.33E-4                 326.645729842688
3.0E-5                    -2.5E-5                  -9.32E-4                 326.45890408829325
3.0E-5                    -2.5E-5                  -9.31E-4                 326.2720783338965
3.0E-5                    -2.5E-5                  -9.3E-4                  326.08525257950356
3.0E-5                    -2.5E-5                  -9.29E-4                 325.8984268251079
3.0E-5                    -2.5E-5                  -9.28E-4                 325.71160107071233
3.0E-5                    -2.5E-5                  -9.27E-4                 325.5247753163171
3.0E-5                    -2.5E-5                  -9.260000000000001E-4    325.33794956192156
3.0E-5                    -2.5E-5                  -9.25E-4                 325.151123807525
3.0E-5                    -2.5E-5                  -9.24E-4                 324.96429805313124
3.0E-5                    -2.5E-5                  -9.23E-4                 324.77747229873626
3.0E-5                    -2.5E-5                  -9.220000000000001E-4    324.59064654433973
3.0E-5                    -2.5E-5                  -9.21E-4                 324.4038207899447
3.0E-5                    -2.5E-5                  -9.2E-4                  324.21699503554953
3.0E-5                    -2.5E-5                  -9.19E-4                 324.0301692811546
3.0E-5                    -2.5E-5                  -9.18E-4                 323.84334352675876
3.0E-5                    -2.5E-5                  -9.170000000000001E-4    323.6565177723628
3.0E-5                    -2.5E-5                  -9.16E-4                 323.469692017969
3.0E-5                    -2.5E-5                  -9.15E-4                 323.2828662635736
3.0E-5                    -2.5E-5                  -9.14E-4                 323.09604050917847
3.0E-5                    -2.5E-5                  -9.13E-4                 322.9092147547831
3.0E-5                    -2.5E-5                  -9.12E-4                 322.72238900038735
3.0E-5                    -2.5E-5                  -9.11E-4                 322.53556324599185
3.0E-5                    -2.5E-5                  -9.1E-4                  322.34873749159726
3.0E-5                    -2.5E-5                  -9.090000000000001E-4    322.1619117372014
3.0E-5                    -2.5E-5                  -9.080000000000001E-4    321.9750859828059
3.0E-5                    -2.5E-5                  -9.07E-4                 321.7882602284111
3.0E-5                    -2.5E-5                  -9.06E-4                 321.6014344740163
3.0E-5                    -2.5E-5                  -9.05E-4                 321.40222528890104
3.0E-5                    -2.5E-5                  -9.040000000000001E-4    321.2162904040518
3.0E-5                    -2.5E-5                  -9.03E-4                 321.03035551920345
3.0E-5                    -2.5E-5                  -9.02E-4                 320.8444206343544
3.0E-5                    -2.5E-5                  -9.01E-4                 320.6584857495051
3.0E-5                    -2.5E-5                  -9.0E-4                  320.4725508646555
3.0E-5                    -2.5E-5                  -8.990000000000001E-4    320.2866159798061
3.0E-5                    -2.5E-5                  -8.98E-4                 320.1006810949564
3.0E-5                    -2.5E-5                  -8.97E-4                 319.91474621010866
3.0E-5                    -2.5E-5                  -8.96E-4                 319.72881132525924
3.0E-5                    -2.5E-5                  -8.950000000000001E-4    319.5428764404102
3.0E-5                    -2.5E-5                  -8.94E-4                 319.3569415555608
3.0E-5                    -2.5E-5                  -8.93E-4                 319.17100667071065
3.0E-5                    -2.5E-5                  -8.92E-4                 318.985071785862
3.0E-5                    -2.5E-5                  -8.910000000000001E-4    318.7991369010135
3.0E-5                    -2.5E-5                  -8.900000000000001E-4    318.61320201616456
3.0E-5                    -2.5E-5                  -8.89E-4                 318.4272671313158
3.0E-5                    -2.5E-5                  -8.88E-4                 318.2413322464667
3.0E-5                    -2.5E-5                  -8.87E-4                 318.05539736161654
3.0E-5                    -2.5E-5                  -8.860000000000001E-4    317.8694624767679
3.0E-5                    -2.5E-5                  -8.85E-4                 317.6835275919181
3.0E-5                    -2.5E-5                  -8.84E-4                 317.4975927070691
3.0E-5                    -2.5E-5                  -8.83E-4                 317.31165782222035
3.0E-5                    -2.5E-5                  -8.82E-4                 317.12572293737077
3.0E-5                    -2.5E-5                  -8.810000000000001E-4    316.93978805252164
3.0E-5                    -2.5E-5                  -8.8E-4                  316.7538531676727
3.0E-5                    -2.5E-5                  -8.79E-4                 316.5679182828238
3.0E-5                    -2.5E-5                  -8.78E-4                 316.38198339797395
3.0E-5                    -2.5E-5                  -8.770000000000001E-4    316.19604851312477
3.0E-5                    -2.5E-5                  -8.76E-4                 316.0101136282755
3.0E-5                    -2.5E-5                  -8.75E-4                 315.82417874342707
3.0E-5                    -2.5E-5                  -8.74E-4                 315.6382438585771
3.0E-5                    -2.5E-5                  -8.730000000000001E-4    315.45230897372835
3.0E-5                    -2.5E-5                  -8.72E-4                 315.26637408887905
3.0E-5                    -2.5E-5                  -8.71E-4                 315.0804392040297
3.0E-5                    -2.5E-5                  -8.7E-4                  314.8945043191809
3.0E-5                    -2.5E-5                  -8.69E-4                 314.7085694343326
3.0E-5                    -2.5E-5                  -8.680000000000001E-4    314.52263454948235
3.0E-5                    -2.5E-5                  -8.67E-4                 314.33669966463344
3.0E-5                    -2.5E-5                  -8.66E-4                 314.1507647797844
3.0E-5                    -2.5E-5                  -8.65E-4                 313.96482989493467
3.0E-5                    -2.5E-5                  -8.64E-4                 313.77889501008525
3.0E-5                    -2.5E-5                  -8.63E-4                 313.5929601252365
3.0E-5                    -2.5E-5                  -8.62E-4                 313.4070252403866
3.0E-5                    -2.5E-5                  -8.61E-4                 313.22109035553933
3.0E-5                    -2.5E-5                  -8.600000000000001E-4    313.0351554706882
3.0E-5                    -2.5E-5                  -8.590000000000001E-4    312.8492205858399
3.0E-5                    -2.5E-5                  -8.58E-4                 312.66328570098983
3.0E-5                    -2.5E-5                  -8.57E-4                 312.4773508161417
3.0E-5                    -2.5E-5                  -8.56E-4                 312.2914159312918
3.0E-5                    -2.5E-5                  -8.550000000000001E-4    312.10548104644204
3.0E-5                    -2.5E-5                  -8.54E-4                 311.91954616159467
3.0E-5                    -2.5E-5                  -8.53E-4                 311.73361127674343
3.0E-5                    -2.5E-5                  -8.52E-4                 311.5476763918953
3.0E-5                    -2.5E-5                  -8.51E-4                 311.36174150704636
3.0E-5                    -2.5E-5                  -8.500000000000001E-4    311.175806622197
3.0E-5                    -2.5E-5                  -8.49E-4                 310.98987173734787
3.0E-5                    -2.5E-5                  -8.48E-4                 310.8039368525
3.0E-5                    -2.5E-5                  -8.47E-4                 310.61800196764995
3.0E-5                    -2.5E-5                  -8.46E-4                 310.43206708280064
3.0E-5                    -2.5E-5                  -8.45E-4                 310.2461321979515
3.0E-5                    -2.5E-5                  -8.44E-4                 310.0601973131022
3.0E-5                    -2.5E-5                  -8.43E-4                 309.8742624282544
3.0E-5                    -2.5E-5                  -8.420000000000001E-4    309.6883275434038
3.0E-5                    -2.5E-5                  -8.410000000000001E-4    309.5023926585553
3.0E-5                    -2.5E-5                  -8.4E-4                  309.3164577737044
3.0E-5                    -2.5E-5                  -8.39E-4                 309.1305228888554
3.0E-5                    -2.5E-5                  -8.38E-4                 308.9445880040075
3.0E-5                    -2.5E-5                  -8.370000000000001E-4    308.75865311915817
3.0E-5                    -2.5E-5                  -8.36E-4                 308.5727182343086
3.0E-5                    -2.5E-5                  -8.35E-4                 308.38678334945956
3.0E-5                    -2.5E-5                  -8.34E-4                 308.2008484646108
3.0E-5                    -2.5E-5                  -8.33E-4                 308.0149135797622
3.0E-5                    -2.5E-5                  -8.320000000000001E-4    307.828978694912
3.0E-5                    -2.5E-5                  -8.31E-4                 307.64304381006366
3.0E-5                    -2.5E-5                  -8.3E-4                  307.4571089252128
3.0E-5                    -2.5E-5                  -8.290000000000001E-4    307.27117404036443
3.0E-5                    -2.5E-5                  -8.280000000000001E-4    306.82857831613995
3.0E-5                    -2.5E-5                  -8.27E-4                 306.63587483087053
3.0E-5                    -2.5E-5                  -8.26E-4                 306.4431713456066
3.0E-5                    -2.5E-5                  -8.25E-4                 306.2504678603413
3.0E-5                    -2.5E-5                  -8.240000000000001E-4    306.05776437507495
3.0E-5                    -2.5E-5                  -8.230000000000001E-4    305.8650608898063
3.0E-5                    -2.5E-5                  -8.22E-4                 305.6723574045424
3.0E-5                    -2.5E-5                  -8.21E-4                 305.479653919274
3.0E-5                    -2.5E-5                  -8.2E-4                  305.28695043400853
3.0E-5                    -2.5E-5                  -8.190000000000001E-4    305.09424694874326
3.0E-5                    -2.5E-5                  -8.18E-4                 304.9015434634773
3.0E-5                    -2.5E-5                  -8.17E-4                 304.7088399782118
3.0E-5                    -2.5E-5                  -8.16E-4                 304.5161364929446
3.0E-5                    -2.5E-5                  -8.15E-4                 304.3234330076797
3.0E-5                    -2.5E-5                  -8.14E-4                 304.16328695642005
3.0E-5                    -2.5E-5                  -8.13E-4                 303.9705965629182
3.0E-5                    -2.5E-5                  -8.12E-4                 303.77790616941866
3.0E-5                    -2.5E-5                  -8.110000000000001E-4    303.5852157759173
3.0E-5                    -2.5E-5                  -8.100000000000001E-4    303.3925253824177
3.0E-5                    -2.5E-5                  -8.09E-4                 303.19983498891224
3.0E-5                    -2.5E-5                  -8.08E-4                 303.1968341296315
3.0E-5                    -2.5E-5                  -8.07E-4                 303.0027181863293
3.0E-5                    -2.5E-5                  -8.060000000000001E-4    302.8086022430325
3.0E-5                    -2.5E-5                  -8.05E-4                 302.61448629973347
3.0E-5                    -2.5E-5                  -8.04E-4                 302.4203703564317
3.0E-5                    -2.5E-5                  -8.03E-4                 302.2262544131336
3.0E-5                    -2.5E-5                  -8.02E-4                 302.0321384698341
3.0E-5                    -2.5E-5                  -8.010000000000001E-4    301.83802252653504
3.0E-5                    -2.5E-5                  -8.0E-4                  301.6439065832369
3.0E-5                    -2.5E-5                  -7.99E-4                 301.44979063993674
3.0E-5                    -2.5E-5                  -7.98E-4                 301.2556746966384
3.0E-5                    -2.5E-5                  -7.97E-4                 301.061558753338
3.0E-5                    -2.5E-5                  -7.96E-4                 300.867442810038
3.0E-5                    -2.5E-5                  -7.95E-4                 300.67332686673944
3.0E-5                    -2.5E-5                  -7.94E-4                 300.4856826809403
3.0E-5                    -2.5E-5                  -7.930000000000001E-4    300.29144939567095
3.0E-5                    -2.5E-5                  -7.920000000000001E-4    300.0972161104071
3.0E-5                    -2.5E-5                  -7.91E-4                 299.9029828251391
3.0E-5                    -2.5E-5                  -7.9E-4                  299.70874953987345
3.0E-5                    -2.5E-5                  -7.89E-4                 299.51451625460754
3.0E-5                    -2.5E-5                  -7.880000000000001E-4    299.3202829693412
3.0E-5                    -2.5E-5                  -7.87E-4                 299.12604968407516
3.0E-5                    -2.5E-5                  -7.86E-4                 298.93181639880805
3.0E-5                    -2.5E-5                  -7.85E-4                 298.73758311354226
3.0E-5                    -2.5E-5                  -7.84E-4                 298.54334982827675
3.0E-5                    -2.5E-5                  -7.830000000000001E-4    298.3491165430094
3.0E-5                    -2.5E-5                  -7.82E-4                 298.15488325774305
3.0E-5                    -2.5E-5                  -7.81E-4                 297.9606499724771
3.0E-5                    -2.5E-5                  -7.800000000000001E-4    297.7664166872113
3.0E-5                    -2.5E-5                  -7.790000000000001E-4    297.5721834019439
3.0E-5                    -2.5E-5                  -7.78E-4                 297.3779501166778
3.0E-5                    -2.5E-5                  -7.77E-4                 297.1837168314122
3.0E-5                    -2.5E-5                  -7.76E-4                 296.9894835461457
3.0E-5                    -2.5E-5                  -7.750000000000001E-4    296.7952502608798
3.0E-5                    -2.5E-5                  -7.740000000000001E-4    296.60101697561345
3.0E-5                    -2.5E-5                  -7.73E-4                 296.4067836903472
3.0E-5                    -2.5E-5                  -7.72E-4                 296.2125504050793
3.0E-5                    -2.5E-5                  -7.71E-4                 296.01831711981526
3.0E-5                    -2.5E-5                  -7.700000000000001E-4    295.8240838345475
3.0E-5                    -2.5E-5                  -7.69E-4                 295.62985054928106
3.0E-5                    -2.5E-5                  -7.68E-4                 295.43561726401504
3.0E-5                    -2.5E-5                  -7.67E-4                 295.2413839787496
3.0E-5                    -2.5E-5                  -7.66E-4                 295.0471506934826
3.0E-5                    -2.5E-5                  -7.650000000000001E-4    294.85291740821583
3.0E-5                    -2.5E-5                  -7.64E-4                 294.65868412295
3.0E-5                    -2.5E-5                  -7.63E-4                 294.4644508376848
3.0E-5                    -2.5E-5                  -7.620000000000001E-4    294.2702175524167
3.0E-5                    -2.5E-5                  -7.610000000000001E-4    294.07598426715214
3.0E-5                    -2.5E-5                  -7.6E-4                  293.88175098188435
3.0E-5                    -2.5E-5                  -7.59E-4                 293.6875176966192
3.0E-5                    -2.5E-5                  -7.58E-4                 293.4932844113519
3.0E-5                    -2.5E-5                  -7.570000000000001E-4    293.2990511260857
3.0E-5                    -2.5E-5                  -7.56E-4                 293.1048178408194
3.0E-5                    -2.5E-5                  -7.55E-4                 292.9105845555541
3.0E-5                    -2.5E-5                  -7.540000000000001E-4    292.7163512702867
3.0E-5                    -2.5E-5                  -7.53E-4                 292.52211798502054
3.0E-5                    -2.5E-5                  -7.520000000000001E-4    292.32788469975435
3.0E-5                    -2.5E-5                  -7.51E-4                 292.1336514144888
3.0E-5                    -2.5E-5                  -7.5E-4                  291.939418129222
3.0E-5                    -2.5E-5                  -7.490000000000001E-4    291.74518484395594
3.0E-5                    -2.5E-5                  -7.48E-4                 291.55095155868946
3.0E-5                    -2.5E-5                  -7.47E-4                 291.35671827342276
3.0E-5                    -2.5E-5                  -7.46E-4                 291.1624849881563
3.0E-5                    -2.5E-5                  -7.45E-4                 290.96825170289026
3.0E-5                    -2.5E-5                  -7.440000000000001E-4    290.7740184176241
3.0E-5                    -2.5E-5                  -7.43E-4                 290.5797851323573
3.0E-5                    -2.5E-5                  -7.42E-4                 290.3855518470914
3.0E-5                    -2.5E-5                  -7.41E-4                 290.1913185618248
3.0E-5                    -2.5E-5                  -7.4E-4                  289.9970852765588
3.0E-5                    -2.5E-5                  -7.390000000000001E-4    289.80285199129173
3.0E-5                    -2.5E-5                  -7.38E-4                 289.6086187060256
3.0E-5                    -2.5E-5                  -7.37E-4                 289.41438542076037
3.0E-5                    -2.5E-5                  -7.360000000000001E-4    289.22015213549423
3.0E-5                    -2.5E-5                  -7.35E-4                 289.0259188502274
3.0E-5                    -2.5E-5                  -7.340000000000001E-4    288.8316855649619
3.0E-5                    -2.5E-5                  -7.33E-4                 288.63745227969514
3.0E-5                    -2.5E-5                  -7.32E-4                 288.44321899442895
3.0E-5                    -2.5E-5                  -7.310000000000001E-4    288.2489857091619
3.0E-5                    -2.5E-5                  -7.3E-4                  288.054752423895
3.0E-5                    -2.5E-5                  -7.29E-4                 287.86051913863025
3.0E-5                    -2.5E-5                  -7.28E-4                 287.6662858533634
3.0E-5                    -2.5E-5                  -7.27E-4                 287.47205256809764
3.0E-5                    -2.5E-5                  -7.260000000000001E-4    287.2778192828301
3.0E-5                    -2.5E-5                  -7.250000000000001E-4    287.0835859975655
3.0E-5                    -2.5E-5                  -7.24E-4                 286.8893527122996
3.0E-5                    -2.5E-5                  -7.23E-4                 286.69511942703144
3.0E-5                    -2.5E-5                  -7.22E-4                 286.50088614176525
3.0E-5                    -2.5E-5                  -7.210000000000001E-4    286.30665285649945
3.0E-5                    -2.5E-5                  -7.2E-4                  286.11241957123286
3.0E-5                    -2.5E-5                  -7.19E-4                 285.9181862859666
3.0E-5                    -2.5E-5                  -7.180000000000001E-4    285.7239530007007
3.0E-5                    -2.5E-5                  -7.17E-4                 285.5297197154349
3.0E-5                    -2.5E-5                  -7.160000000000001E-4    285.3354864301682
3.0E-5                    -2.5E-5                  -7.15E-4                 285.14125314490207
3.0E-5                    -2.5E-5                  -7.14E-4                 284.94701985963457
3.0E-5                    -2.5E-5                  -7.130000000000001E-4    284.7527865743667
3.0E-5                    -2.5E-5                  -7.12E-4                 284.5585532891031
3.0E-5                    -2.5E-5                  -7.11E-4                 284.36432000383616
3.0E-5                    -2.5E-5                  -7.1E-4                  284.1700867185692
3.0E-5                    -2.5E-5                  -7.09E-4                 283.9758534333047
3.0E-5                    -2.5E-5                  -7.080000000000001E-4    283.757955654169
3.0E-5                    -2.5E-5                  -7.070000000000001E-4    283.56287018522903
3.0E-5                    -2.5E-5                  -7.06E-4                 283.3677847162885
3.0E-5                    -2.5E-5                  -7.050000000000001E-4    283.1726992473523
3.0E-5                    -2.5E-5                  -7.04E-4                 282.97761377841107
3.0E-5                    -2.5E-5                  -7.030000000000001E-4    282.7825283094726
3.0E-5                    -2.5E-5                  -7.02E-4                 282.58744284053273
3.0E-5                    -2.5E-5                  -7.01E-4                 282.3923573715924
3.0E-5                    -2.5E-5                  -7.000000000000001E-4    282.19727190265417
3.0E-5                    -2.5E-5                  -6.99E-4                 282.00218643371386
3.0E-5                    -2.5E-5                  -6.98E-4                 281.8071009647756
3.0E-5                    -2.5E-5                  -6.97E-4                 281.61201549583734
3.0E-5                    -2.5E-5                  -6.96E-4                 281.4169300268993
3.0E-5                    -2.5E-5                  -6.950000000000001E-4    281.22184455795946
3.0E-5                    -2.5E-5                  -6.94E-4                 281.0267590890187
3.0E-5                    -2.5E-5                  -6.93E-4                 280.8316736200793
3.0E-5                    -2.5E-5                  -6.92E-4                 280.6365881511406
3.0E-5                    -2.5E-5                  -6.91E-4                 280.4415026822005