% Model:              lens_cube.mph
% Version:            COMSOL 5.5.0.292
% Date:               Nov 26 2021, 17:37
% Dimension:          3
% Nodes:              2001
% Expressions:        1
% Description:        Electric field, z component
% Length unit:        m
% x                       y                        z                        es.Ez (V/m)
3.0E-5                    -2.5E-5                  -0.001                   -65.51257387691933
3.0E-5                    -2.5E-5                  -9.99E-4                 -65.57036682740188
3.0E-5                    -2.5E-5                  -9.98E-4                 -65.62815977788478
3.0E-5                    -2.5E-5                  -9.97E-4                 -65.68595272836728
3.0E-5                    -2.5E-5                  -9.96E-4                 -65.74374567885013
3.0E-5                    -2.5E-5                  -9.95E-4                 -65.80153862933263
3.0E-5                    -2.5E-5                  -9.94E-4                 -65.85933157981499
3.0E-5                    -2.5E-5                  -9.93E-4                 -65.9171245302978
3.0E-5                    -2.5E-5                  -9.92E-4                 -65.97491748078062
3.0E-5                    -2.5E-5                  -9.910000000000001E-4    -66.03271043126301
3.0E-5                    -2.5E-5                  -9.9E-4                  -66.09050338174606
3.0E-5                    -2.5E-5                  -9.89E-4                 -66.1482963322285
3.0E-5                    -2.5E-5                  -9.88E-4                 -66.24110919141552
3.0E-5                    -2.5E-5                  -9.87E-4                 -66.29890502189619
3.0E-5                    -2.5E-5                  -9.860000000000001E-4    -66.35670085237737
3.0E-5                    -2.5E-5                  -9.85E-4                 -66.41449668285792
3.0E-5                    -2.5E-5                  -9.84E-4                 -66.47229251333903
3.0E-5                    -2.5E-5                  -9.83E-4                 -66.5300883438203
3.0E-5                    -2.5E-5                  -9.82E-4                 -66.58788417430077
3.0E-5                    -2.5E-5                  -9.81E-4                 -66.64568000478167
3.0E-5                    -2.5E-5                  -9.8E-4                  -66.70347583526296
3.0E-5                    -2.5E-5                  -9.79E-4                 -66.76127166574345
3.0E-5                    -2.5E-5                  -9.78E-4                 -66.81906749622466
3.0E-5                    -2.5E-5                  -9.77E-4                 -66.87686332670556
3.0E-5                    -2.5E-5                  -9.76E-4                 -66.93465915718639
3.0E-5                    -2.5E-5                  -9.750000000000001E-4    -66.99245498766696
3.0E-5                    -2.5E-5                  -9.74E-4                 -67.0502508181482
3.0E-5                    -2.5E-5                  -9.73E-4                 -67.10804664862911
3.0E-5                    -2.5E-5                  -9.72E-4                 -67.16584247910995
3.0E-5                    -2.5E-5                  -9.710000000000001E-4    -67.22363830959063
3.0E-5                    -2.5E-5                  -9.7E-4                  -67.28143414007141
3.0E-5                    -2.5E-5                  -9.69E-4                 -67.33922997055286
3.0E-5                    -2.5E-5                  -9.68E-4                 -67.39702580103331
3.0E-5                    -2.5E-5                  -9.67E-4                 -67.45482163151433
3.0E-5                    -2.5E-5                  -9.660000000000001E-4    -67.5126174619958
3.0E-5                    -2.5E-5                  -9.65E-4                 -67.57041329247593
3.0E-5                    -2.5E-5                  -9.64E-4                 -67.50268017428454
3.0E-5                    -2.5E-5                  -9.63E-4                 -67.56832645393533
3.0E-5                    -2.5E-5                  -9.620000000000001E-4    -67.63397273358578
3.0E-5                    -2.5E-5                  -9.61E-4                 -67.69961901323657
3.0E-5                    -2.5E-5                  -9.6E-4                  -67.76526529288707
3.0E-5                    -2.5E-5                  -9.59E-4                 -67.8309115725374
3.0E-5                    -2.5E-5                  -9.58E-4                 -67.89655785218831
3.0E-5                    -2.5E-5                  -9.570000000000001E-4    -67.9622041318392
3.0E-5                    -2.5E-5                  -9.56E-4                 -68.02785041148925
3.0E-5                    -2.5E-5                  -9.55E-4                 -68.09349669113996
3.0E-5                    -2.5E-5                  -9.54E-4                 -68.15914297079058
3.0E-5                    -2.5E-5                  -9.530000000000001E-4    -68.22478925044132
3.0E-5                    -2.5E-5                  -9.52E-4                 -68.29043553009156
3.0E-5                    -2.5E-5                  -9.51E-4                 -68.3560818097426
3.0E-5                    -2.5E-5                  -9.5E-4                  -68.42172808939273
3.0E-5                    -2.5E-5                  -9.49E-4                 -68.48737436904364
3.0E-5                    -2.5E-5                  -9.480000000000001E-4    -68.5530206486941
3.0E-5                    -2.5E-5                  -9.47E-4                 -68.61866692834485
3.0E-5                    -2.5E-5                  -9.46E-4                 -68.68431320799536
3.0E-5                    -2.5E-5                  -9.45E-4                 -68.74995948764607
3.0E-5                    -2.5E-5                  -9.440000000000001E-4    -68.81560576729632
3.0E-5                    -2.5E-5                  -9.43E-4                 -68.88125204694698
3.0E-5                    -2.5E-5                  -9.42E-4                 -68.9468983265979
3.0E-5                    -2.5E-5                  -9.41E-4                 -69.01254460624835
3.0E-5                    -2.5E-5                  -9.400000000000001E-4    -69.07819088589906
3.0E-5                    -2.5E-5                  -9.390000000000001E-4    -69.14383716554967
3.0E-5                    -2.5E-5                  -9.38E-4                 -69.20948344520018
3.0E-5                    -2.5E-5                  -9.37E-4                 -69.27512972485083
3.0E-5                    -2.5E-5                  -9.36E-4                 -69.34077600450135
3.0E-5                    -2.5E-5                  -9.350000000000001E-4    -69.406422284152
3.0E-5                    -2.5E-5                  -9.34E-4                 -69.47206856380265
3.0E-5                    -2.5E-5                  -9.33E-4                 -69.53771484345326
3.0E-5                    -2.5E-5                  -9.32E-4                 -69.60336112310378
3.0E-5                    -2.5E-5                  -9.31E-4                 -69.66900740275463
3.0E-5                    -2.5E-5                  -9.3E-4                  -69.73465368240475
3.0E-5                    -2.5E-5                  -9.29E-4                 -69.80029996205533
3.0E-5                    -2.5E-5                  -9.28E-4                 -69.86594624170604
3.0E-5                    -2.5E-5                  -9.27E-4                 -69.93159252135663
3.0E-5                    -2.5E-5                  -9.260000000000001E-4    -69.99723880100734
3.0E-5                    -2.5E-5                  -9.25E-4                 -70.06288508065812
3.0E-5                    -2.5E-5                  -9.24E-4                 -70.12853136030846
3.0E-5                    -2.5E-5                  -9.23E-4                 -70.19417763995905
3.0E-5                    -2.5E-5                  -9.220000000000001E-4    -70.2598239196098
3.0E-5                    -2.5E-5                  -9.21E-4                 -70.32547019926037
3.0E-5                    -2.5E-5                  -9.2E-4                  -70.39111647891102
3.0E-5                    -2.5E-5                  -9.19E-4                 -70.4567627585615
3.0E-5                    -2.5E-5                  -9.18E-4                 -70.52240903821227
3.0E-5                    -2.5E-5                  -9.170000000000001E-4    -70.58805531786291
3.0E-5                    -2.5E-5                  -9.16E-4                 -70.65370159751332
3.0E-5                    -2.5E-5                  -9.15E-4                 -70.7193478771639
3.0E-5                    -2.5E-5                  -9.14E-4                 -70.78499415681446
3.0E-5                    -2.5E-5                  -9.13E-4                 -70.85064043646503
3.0E-5                    -2.5E-5                  -9.12E-4                 -70.91628671611574
3.0E-5                    -2.5E-5                  -9.11E-4                 -70.98193299576641
3.0E-5                    -2.5E-5                  -9.1E-4                  -71.04757927541694
3.0E-5                    -2.5E-5                  -9.090000000000001E-4    -71.11322555506757
3.0E-5                    -2.5E-5                  -9.080000000000001E-4    -71.17887183471825
3.0E-5                    -2.5E-5                  -9.07E-4                 -71.2445181143688
3.0E-5                    -2.5E-5                  -9.06E-4                 -71.31016439401934
3.0E-5                    -2.5E-5                  -9.05E-4                 -71.38130185769651
3.0E-5                    -2.5E-5                  -9.040000000000001E-4    -71.44645243037218
3.0E-5                    -2.5E-5                  -9.03E-4                 -71.5116030030478
3.0E-5                    -2.5E-5                  -9.02E-4                 -71.57675357572334
3.0E-5                    -2.5E-5                  -9.01E-4                 -71.64190414839898
3.0E-5                    -2.5E-5                  -9.0E-4                  -71.70705472107474
3.0E-5                    -2.5E-5                  -8.990000000000001E-4    -71.7722052937505
3.0E-5                    -2.5E-5                  -8.98E-4                 -71.8373558664262
3.0E-5                    -2.5E-5                  -8.97E-4                 -71.90250643910176
3.0E-5                    -2.5E-5                  -8.96E-4                 -71.96765701177732
3.0E-5                    -2.5E-5                  -8.950000000000001E-4    -72.03280758445293
3.0E-5                    -2.5E-5                  -8.94E-4                 -72.09795815712867
3.0E-5                    -2.5E-5                  -8.93E-4                 -72.16310872980449
3.0E-5                    -2.5E-5                  -8.92E-4                 -72.22825930248004
3.0E-5                    -2.5E-5                  -8.910000000000001E-4    -72.29340987515567
3.0E-5                    -2.5E-5                  -8.900000000000001E-4    -72.35856044783121
3.0E-5                    -2.5E-5                  -8.89E-4                 -72.42371102050687
3.0E-5                    -2.5E-5                  -8.88E-4                 -72.48886159318258
3.0E-5                    -2.5E-5                  -8.87E-4                 -72.5540121658582
3.0E-5                    -2.5E-5                  -8.860000000000001E-4    -72.61916273853386
3.0E-5                    -2.5E-5                  -8.85E-4                 -72.68431331120964
3.0E-5                    -2.5E-5                  -8.84E-4                 -72.74946388388531
3.0E-5                    -2.5E-5                  -8.83E-4                 -72.81461445656086
3.0E-5                    -2.5E-5                  -8.82E-4                 -72.87976502923662
3.0E-5                    -2.5E-5                  -8.810000000000001E-4    -72.94491560191224
3.0E-5                    -2.5E-5                  -8.8E-4                  -73.01006617458788
3.0E-5                    -2.5E-5                  -8.79E-4                 -73.07521674726348
3.0E-5                    -2.5E-5                  -8.78E-4                 -73.14036731993922
3.0E-5                    -2.5E-5                  -8.770000000000001E-4    -73.20551789261492
3.0E-5                    -2.5E-5                  -8.76E-4                 -73.27066846529056
3.0E-5                    -2.5E-5                  -8.75E-4                 -73.33581903796613
3.0E-5                    -2.5E-5                  -8.74E-4                 -73.40096961064178
3.0E-5                    -2.5E-5                  -8.730000000000001E-4    -73.46612018331743
3.0E-5                    -2.5E-5                  -8.72E-4                 -73.53127075599328
3.0E-5                    -2.5E-5                  -8.71E-4                 -73.59642132866892
3.0E-5                    -2.5E-5                  -8.7E-4                  -73.66157190134444
3.0E-5                    -2.5E-5                  -8.69E-4                 -73.72672247401992
3.0E-5                    -2.5E-5                  -8.680000000000001E-4    -73.7918730466958
3.0E-5                    -2.5E-5                  -8.67E-4                 -73.85702361937129
3.0E-5                    -2.5E-5                  -8.66E-4                 -73.92217419204681
3.0E-5                    -2.5E-5                  -8.65E-4                 -73.98732476472277
3.0E-5                    -2.5E-5                  -8.64E-4                 -74.0524753373985
3.0E-5                    -2.5E-5                  -8.63E-4                 -74.11762591007408
3.0E-5                    -2.5E-5                  -8.62E-4                 -74.18277648274973
3.0E-5                    -2.5E-5                  -8.61E-4                 -74.24792705542521
3.0E-5                    -2.5E-5                  -8.600000000000001E-4    -74.31307762810108
3.0E-5                    -2.5E-5                  -8.590000000000001E-4    -74.37822820077676
3.0E-5                    -2.5E-5                  -8.58E-4                 -74.44337877345245
3.0E-5                    -2.5E-5                  -8.57E-4                 -74.50852934612807
3.0E-5                    -2.5E-5                  -8.56E-4                 -74.57367991880375
3.0E-5                    -2.5E-5                  -8.550000000000001E-4    -74.63883049147938
3.0E-5                    -2.5E-5                  -8.54E-4                 -74.70398106415502
3.0E-5                    -2.5E-5                  -8.53E-4                 -74.76913163683078
3.0E-5                    -2.5E-5                  -8.52E-4                 -74.83428220950628
3.0E-5                    -2.5E-5                  -8.51E-4                 -74.89943278218195
3.0E-5                    -2.5E-5                  -8.500000000000001E-4    -74.96458335485775
3.0E-5                    -2.5E-5                  -8.49E-4                 -75.02973392753333
3.0E-5                    -2.5E-5                  -8.48E-4                 -75.09488450020865
3.0E-5                    -2.5E-5                  -8.47E-4                 -75.16003507288465
3.0E-5                    -2.5E-5                  -8.46E-4                 -75.22518564556026
3.0E-5                    -2.5E-5                  -8.45E-4                 -75.29033621823567
3.0E-5                    -2.5E-5                  -8.44E-4                 -75.35548679091146
3.0E-5                    -2.5E-5                  -8.43E-4                 -75.42063736358716
3.0E-5                    -2.5E-5                  -8.420000000000001E-4    -75.48578793626274
3.0E-5                    -2.5E-5                  -8.410000000000001E-4    -75.55093850893815
3.0E-5                    -2.5E-5                  -8.4E-4                  -75.61608908161423
3.0E-5                    -2.5E-5                  -8.39E-4                 -75.6812396542899
3.0E-5                    -2.5E-5                  -8.38E-4                 -75.74639022696525
3.0E-5                    -2.5E-5                  -8.370000000000001E-4    -75.81154079964098
3.0E-5                    -2.5E-5                  -8.36E-4                 -75.87669137231694
3.0E-5                    -2.5E-5                  -8.35E-4                 -75.94184194499243
3.0E-5                    -2.5E-5                  -8.34E-4                 -76.00699251766792
3.0E-5                    -2.5E-5                  -8.33E-4                 -76.0721430903438
3.0E-5                    -2.5E-5                  -8.320000000000001E-4    -76.13729366301926
3.0E-5                    -2.5E-5                  -8.31E-4                 -76.202444235695
3.0E-5                    -2.5E-5                  -8.3E-4                  -76.26759480837089
3.0E-5                    -2.5E-5                  -8.290000000000001E-4    -76.33274538104654
3.0E-5                    -2.5E-5                  -8.280000000000001E-4    -76.58964460258812
3.0E-5                    -2.5E-5                  -8.27E-4                 -76.65811819746665
3.0E-5                    -2.5E-5                  -8.26E-4                 -76.72659179234435
3.0E-5                    -2.5E-5                  -8.25E-4                 -76.79506538722244
3.0E-5                    -2.5E-5                  -8.240000000000001E-4    -76.8635389821009
3.0E-5                    -2.5E-5                  -8.230000000000001E-4    -76.9320125769793
3.0E-5                    -2.5E-5                  -8.22E-4                 -77.0004861718576
3.0E-5                    -2.5E-5                  -8.21E-4                 -77.06895976673549
3.0E-5                    -2.5E-5                  -8.2E-4                  -77.13743336161356
3.0E-5                    -2.5E-5                  -8.190000000000001E-4    -77.205906956492
3.0E-5                    -2.5E-5                  -8.18E-4                 -77.27438055136987
3.0E-5                    -2.5E-5                  -8.17E-4                 -77.34285414624793
3.0E-5                    -2.5E-5                  -8.16E-4                 -77.41132774112654
3.0E-5                    -2.5E-5                  -8.15E-4                 -77.47980133600394
3.0E-5                    -2.5E-5                  -8.14E-4                 -77.57426741273872
3.0E-5                    -2.5E-5                  -8.13E-4                 -77.64526601680979
3.0E-5                    -2.5E-5                  -8.12E-4                 -77.71626462087966
3.0E-5                    -2.5E-5                  -8.110000000000001E-4    -77.78726322494975
3.0E-5                    -2.5E-5                  -8.100000000000001E-4    -77.85826182901928
3.0E-5                    -2.5E-5                  -8.09E-4                 -77.92926043308978
3.0E-5                    -2.5E-5                  -8.08E-4                 -77.84196354568473
3.0E-5                    -2.5E-5                  -8.07E-4                 -77.91514369300887
3.0E-5                    -2.5E-5                  -8.060000000000001E-4    -77.98832384033255
3.0E-5                    -2.5E-5                  -8.05E-4                 -78.06150398765726
3.0E-5                    -2.5E-5                  -8.04E-4                 -78.1346841349822
3.0E-5                    -2.5E-5                  -8.03E-4                 -78.20786428230633
3.0E-5                    -2.5E-5                  -8.02E-4                 -78.28104442963081
3.0E-5                    -2.5E-5                  -8.010000000000001E-4    -78.35422457695483
3.0E-5                    -2.5E-5                  -8.0E-4                  -78.42740472427954
3.0E-5                    -2.5E-5                  -7.99E-4                 -78.50058487160408
3.0E-5                    -2.5E-5                  -7.98E-4                 -78.57376501892833
3.0E-5                    -2.5E-5                  -7.97E-4                 -78.6469451662532
3.0E-5                    -2.5E-5                  -7.96E-4                 -78.72012531357763
3.0E-5                    -2.5E-5                  -7.95E-4                 -78.79330546090176
3.0E-5                    -2.5E-5                  -7.94E-4                 -78.8331168842873
3.0E-5                    -2.5E-5                  -7.930000000000001E-4    -78.90700667488109
3.0E-5                    -2.5E-5                  -7.920000000000001E-4    -78.9808964654745
3.0E-5                    -2.5E-5                  -7.91E-4                 -79.05478625606811
3.0E-5                    -2.5E-5                  -7.9E-4                  -79.12867604666152
3.0E-5                    -2.5E-5                  -7.89E-4                 -79.20256583725491
3.0E-5                    -2.5E-5                  -7.880000000000001E-4    -79.27645562784858
3.0E-5                    -2.5E-5                  -7.87E-4                 -79.35034541844185
3.0E-5                    -2.5E-5                  -7.86E-4                 -79.42423520903546
3.0E-5                    -2.5E-5                  -7.85E-4                 -79.49812499962898
3.0E-5                    -2.5E-5                  -7.84E-4                 -79.5720147902222
3.0E-5                    -2.5E-5                  -7.830000000000001E-4    -79.64590458081575
3.0E-5                    -2.5E-5                  -7.82E-4                 -79.71979437140939
3.0E-5                    -2.5E-5                  -7.81E-4                 -79.79368416200285
3.0E-5                    -2.5E-5                  -7.800000000000001E-4    -79.8675739525962
3.0E-5                    -2.5E-5                  -7.790000000000001E-4    -79.94146374318984
3.0E-5                    -2.5E-5                  -7.78E-4                 -80.01535353378338
3.0E-5                    -2.5E-5                  -7.77E-4                 -80.0892433243767
3.0E-5                    -2.5E-5                  -7.76E-4                 -80.16313311497015
3.0E-5                    -2.5E-5                  -7.750000000000001E-4    -80.23702290556369
3.0E-5                    -2.5E-5                  -7.740000000000001E-4    -80.31091269615723
3.0E-5                    -2.5E-5                  -7.73E-4                 -80.38480248675056
3.0E-5                    -2.5E-5                  -7.72E-4                 -80.45869227734437
3.0E-5                    -2.5E-5                  -7.71E-4                 -80.53258206793745
3.0E-5                    -2.5E-5                  -7.700000000000001E-4    -80.6064718585312
3.0E-5                    -2.5E-5                  -7.69E-4                 -80.68036164912468
3.0E-5                    -2.5E-5                  -7.68E-4                 -80.75425143971819
3.0E-5                    -2.5E-5                  -7.67E-4                 -80.82814123031142
3.0E-5                    -2.5E-5                  -7.66E-4                 -80.9020310209052
3.0E-5                    -2.5E-5                  -7.650000000000001E-4    -80.97592081149865
3.0E-5                    -2.5E-5                  -7.64E-4                 -81.04981060209207
3.0E-5                    -2.5E-5                  -7.63E-4                 -81.12370039268535
3.0E-5                    -2.5E-5                  -7.620000000000001E-4    -81.19759018327925
3.0E-5                    -2.5E-5                  -7.610000000000001E-4    -81.27147997387236
3.0E-5                    -2.5E-5                  -7.6E-4                  -81.34536976446591
3.0E-5                    -2.5E-5                  -7.59E-4                 -81.41925955505943
3.0E-5                    -2.5E-5                  -7.58E-4                 -81.49314934565302
3.0E-5                    -2.5E-5                  -7.570000000000001E-4    -81.56703913624642
3.0E-5                    -2.5E-5                  -7.56E-4                 -81.6409289268399
3.0E-5                    -2.5E-5                  -7.55E-4                 -81.71481871743349
3.0E-5                    -2.5E-5                  -7.540000000000001E-4    -81.78870850802701
3.0E-5                    -2.5E-5                  -7.53E-4                 -81.86259829862044
3.0E-5                    -2.5E-5                  -7.520000000000001E-4    -81.93648808921388
3.0E-5                    -2.5E-5                  -7.51E-4                 -82.0103778798073
3.0E-5                    -2.5E-5                  -7.5E-4                  -82.08426767040092
3.0E-5                    -2.5E-5                  -7.490000000000001E-4    -82.15815746099423
3.0E-5                    -2.5E-5                  -7.48E-4                 -82.23204725158772
3.0E-5                    -2.5E-5                  -7.47E-4                 -82.30593704218143
3.0E-5                    -2.5E-5                  -7.46E-4                 -82.37982683277491
3.0E-5                    -2.5E-5                  -7.45E-4                 -82.45371662336835
3.0E-5                    -2.5E-5                  -7.440000000000001E-4    -82.52760641396182
3.0E-5                    -2.5E-5                  -7.43E-4                 -82.60149620455533
3.0E-5                    -2.5E-5                  -7.42E-4                 -82.67538599514869
3.0E-5                    -2.5E-5                  -7.41E-4                 -82.7492757857423
3.0E-5                    -2.5E-5                  -7.4E-4                  -82.82316557633567
3.0E-5                    -2.5E-5                  -7.390000000000001E-4    -82.89705536692952
3.0E-5                    -2.5E-5                  -7.38E-4                 -82.97094515752278
3.0E-5                    -2.5E-5                  -7.37E-4                 -83.04483494811613
3.0E-5                    -2.5E-5                  -7.360000000000001E-4    -83.11872473870963
3.0E-5                    -2.5E-5                  -7.35E-4                 -83.19261452930321
3.0E-5                    -2.5E-5                  -7.340000000000001E-4    -83.26650431989644
3.0E-5                    -2.5E-5                  -7.33E-4                 -83.3403941104901
3.0E-5                    -2.5E-5                  -7.32E-4                 -83.41428390108352
3.0E-5                    -2.5E-5                  -7.310000000000001E-4    -83.48817369167718
3.0E-5                    -2.5E-5                  -7.3E-4                  -83.56206348227073
3.0E-5                    -2.5E-5                  -7.29E-4                 -83.63595327286404
3.0E-5                    -2.5E-5                  -7.28E-4                 -83.70984306345741
3.0E-5                    -2.5E-5                  -7.27E-4                 -83.78373285405111
3.0E-5                    -2.5E-5                  -7.260000000000001E-4    -83.85762264464466
3.0E-5                    -2.5E-5                  -7.250000000000001E-4    -83.93151243523788
3.0E-5                    -2.5E-5                  -7.24E-4                 -84.00540222583113
3.0E-5                    -2.5E-5                  -7.23E-4                 -84.0792920164251
3.0E-5                    -2.5E-5                  -7.22E-4                 -84.15318180701856
3.0E-5                    -2.5E-5                  -7.210000000000001E-4    -84.22707159761183
3.0E-5                    -2.5E-5                  -7.2E-4                  -84.30096138820537
3.0E-5                    -2.5E-5                  -7.19E-4                 -84.37485117879916
3.0E-5                    -2.5E-5                  -7.180000000000001E-4    -84.44874096939228
3.0E-5                    -2.5E-5                  -7.17E-4                 -84.5226307599857
3.0E-5                    -2.5E-5                  -7.160000000000001E-4    -84.59652055057938
3.0E-5                    -2.5E-5                  -7.15E-4                 -84.67041034117287
3.0E-5                    -2.5E-5                  -7.14E-4                 -84.74430013176658
3.0E-5                    -2.5E-5                  -7.130000000000001E-4    -84.81818992236043
3.0E-5                    -2.5E-5                  -7.12E-4                 -84.89207971295335
3.0E-5                    -2.5E-5                  -7.11E-4                 -84.9659695035468
3.0E-5                    -2.5E-5                  -7.1E-4                  -85.03985929414046
3.0E-5                    -2.5E-5                  -7.09E-4                 -85.11374908473391
3.0E-5                    -2.5E-5                  -7.080000000000001E-4    -85.29943540844431
3.0E-5                    -2.5E-5                  -7.070000000000001E-4    -85.37495861500531
3.0E-5                    -2.5E-5                  -7.06E-4                 -85.45048182156677
3.0E-5                    -2.5E-5                  -7.050000000000001E-4    -85.5260050281276
3.0E-5                    -2.5E-5                  -7.04E-4                 -85.60152823468906
3.0E-5                    -2.5E-5                  -7.030000000000001E-4    -85.67705144125034
3.0E-5                    -2.5E-5                  -7.02E-4                 -85.75257464781146
3.0E-5                    -2.5E-5                  -7.01E-4                 -85.82809785437348
3.0E-5                    -2.5E-5                  -7.000000000000001E-4    -85.9036210609338
3.0E-5                    -2.5E-5                  -6.99E-4                 -85.97914426749549
3.0E-5                    -2.5E-5                  -6.98E-4                 -86.05466747405666
3.0E-5                    -2.5E-5                  -6.97E-4                 -86.13019068061755
3.0E-5                    -2.5E-5                  -6.96E-4                 -86.205713887179
3.0E-5                    -2.5E-5                  -6.950000000000001E-4    -86.28123709373995
3.0E-5                    -2.5E-5                  -6.94E-4                 -86.35676030030146
3.0E-5                    -2.5E-5                  -6.93E-4                 -86.43228350686257
3.0E-5                    -2.5E-5                  -6.92E-4                 -86.50780671342375